                               Psi4 1.2.1 release

  ==> Input File <==

--------------------------------------------------------------------------
#!/usr/bin/python3
import tutor.psithon.util
from tutor.project_2.cis import CIS

mol = tutor.psithon.util.psi_molecule_from_file('water.xyz')

set {
 scf_type df
 basis 6-31G*
 e_convergence 1e-8
 reference uhf
}

cis = CIS.create(mol, verbose=True)
cis.run()
--------------------------------------------------------------------------

    Molecular point group: c1

    Geometry (in Angstrom), charge = 0, multiplicity = 1:

       Center              X                  Y                   Z               Mass
    ------------   -----------------  -----------------  -----------------  -----------------
         O           -4.890770000000     2.729320000000    -0.006650000000    15.994914619560
         H           -3.922880000000     2.685540000000     0.008810000000     1.007825032070
         H           -5.169620000000     1.854240000000     0.302280000000     1.007825032070

  Charge       = 0
  Multiplicity = 1
  Basis Set: 6-31G*
    Blend: 6-31G*
  Basis Set: (6-31G* AUX)
    Blend: CC-PVDZ-JKFIT

    Orbital Energies [Eh]
    ---------------------

    Doubly Occupied:

       1A    -20.562988     2A     -1.336243     3A     -0.699527
       4A     -0.569942     5A     -0.497329

  @DF-RHF Final Energy:   -76.00974493881364

   => Energetics <=

    Nuclear Repulsion Energy =              9.0842535771396697
    One-Electron Energy =                -122.8559347163140814
    Two-Electron Energy =                  37.7619362003607648
    Total Energy =                        -76.0097449388136397

  Dipole Moment: [D]
     X:     1.2958      Y:    -1.7281      Z:     0.6101     Total:     2.2445

*** Psi4 exiting successfully. Buy a developer a beer!
