                               Psi4 1.2.1 release

  ==> Input File <==

--------------------------------------------------------------------------
#!/usr/bin/python3
import tutor.psithon.util
from tutor.project_1.population import atomic_charges, Loc
import numpy
numpy.set_printoptions(precision=4, linewidth=200, suppress=True)

mol = tutor.psithon.util.psi_molecule_from_file('water.xyz')

set {
 scf_type df
 basis 6-31++G(d,p)
 e_convergence 1e-8
}

e, w = energy('scf', molecule=mol, return_wfn=True)

# atomic charges from SCF density
for kappa in numpy.linspace(0.0, 0.5, 20):
    q = atomic_charges(w, kappa)
    print(" kappa = %5.2f   q(O) = %14.4f   q(H) = %14.4f" % (kappa, q[0], q[1]))

# LMO's and distributed quadrupole moments
loc=  Loc(w)
print(loc)
--------------------------------------------------------------------------

    Molecular point group: c1

    Geometry (in Angstrom), charge = 0, multiplicity = 1:

       Center              X                  Y                   Z               Mass
    ------------   -----------------  -----------------  -----------------  -----------------
         O           -4.890770000000     2.729320000000    -0.006650000000    15.994914619560
         H           -3.922880000000     2.685540000000     0.008810000000     1.007825032070
         H           -5.169620000000     1.854240000000     0.302280000000     1.007825032070

  Charge       = 0
  Multiplicity = 1
  Basis Set: 6-31++G(D,P)
    Blend: 6-31++G(D,P)
  Basis Set: (6-31++G(D,P) AUX)
    Blend: AUG-CC-PVDZ-JKFIT

    Orbital Energies [Eh]
    ---------------------

    Doubly Occupied:

       1A    -20.584757     2A     -1.351086     3A     -0.712641
       4A     -0.582458     5A     -0.508583

  @DF-RHF Final Energy:   -76.02976170941184

   => Energetics <=

    Nuclear Repulsion Energy =              9.0842535771396697
    One-Electron Energy =                -122.7489809821934017
    Two-Electron Energy =                  37.6349656956418812
    Total Energy =                        -76.0297617094118436

  Dipole Moment: [D]
     X:     1.3317      Y:    -1.7759      Z:     0.6270     Total:     2.3066

*** Psi4 exiting successfully. Buy a developer a beer!
